LAMMPS data file via write_data, version 29 Aug 2024, timestep = 500000, units = real

699 atoms
3 atom types

0 24.595 xlo xhi
0 25.56 ylo yhi
0 16.488 zlo zhi

Masses

1 12.011
2 15.9994
3 2.014101777

Atoms # atomic

1	1	1.84461	0.355	4.5	0	0	0
2	1	4.30412	0.355	4.5	0	0	0
3	1	6.76363	0.355	4.5	0	0	0
4	1	9.22314	0.355	4.5	0	0	0
5	1	11.6827	0.355	4.5	0	0	0
6	1	0.614849	2.485	4.5	0	0	0
7	1	1.84461	1.775	4.5	0	0	0
8	1	3.07436	2.485	4.5	0	0	0
9	1	4.30412	1.775	4.5	0	0	0
10	1	5.53387	2.485	4.5	0	0	0
11	1	6.76363	1.775	4.5	0	0	0
12	1	7.99339	2.485	4.5	0	0	0
13	1	9.22314	1.775	4.5	0	0	0
14	1	10.4529	2.485	4.5	0	0	0
15	1	11.6827	1.775	4.5	0	0	0
16	1	0.614849	3.905	4.5	0	0	0
17	1	1.84461	4.615	4.5	0	0	0
18	1	3.07436	3.905	4.5	0	0	0
19	1	4.30412	4.615	4.5	0	0	0
20	1	5.53387	3.905	4.5	0	0	0
21	1	6.76363	4.615	4.5	0	0	0
22	1	7.99339	3.905	4.5	0	0	0
23	1	9.22314	4.615	4.5	0	0	0
24	1	10.4529	3.905	4.5	0	0	0
25	1	11.6827	4.615	4.5	0	0	0
26	1	0.614849	6.745	4.5	0	0	0
27	1	1.84461	6.035	4.5	0	0	0
28	1	3.07436	6.745	4.5	0	0	0
29	1	4.30412	6.035	4.5	0	0	0
30	1	5.53387	6.745	4.5	0	0	0
31	1	6.76363	6.035	4.5	0	0	0
32	1	7.99339	6.745	4.5	0	0	0
33	1	9.22314	6.035	4.5	0	0	0
34	1	10.4529	6.745	4.5	0	0	0
35	1	11.6827	6.035	4.5	0	0	0
36	1	0.614849	8.165	4.5	0	0	0
37	1	1.84461	8.875	4.5	0	0	0
38	1	3.07436	8.165	4.5	0	0	0
39	1	4.30412	8.875	4.5	0	0	0
40	1	5.53387	8.165	4.5	0	0	0
41	1	6.76363	8.875	4.5	0	0	0
42	1	7.99339	8.165	4.5	0	0	0
43	1	9.22314	8.875	4.5	0	0	0
44	1	10.4529	8.165	4.5	0	0	0
45	1	11.6827	8.875	4.5	0	0	0
46	1	0.614849	11.005	4.5	0	0	0
47	1	1.84461	10.295	4.5	0	0	0
48	1	3.07436	11.005	4.5	0	0	0
49	1	4.30412	10.295	4.5	0	0	0
50	1	5.53387	11.005	4.5	0	0	0
51	1	6.76363	10.295	4.5	0	0	0
52	1	7.99339	11.005	4.5	0	0	0
53	1	9.22314	10.295	4.5	0	0	0
54	1	10.4529	11.005	4.5	0	0	0
55	1	11.6827	10.295	4.5	0	0	0
56	1	0.614849	12.425	4.5	0	0	0
57	1	3.07436	12.425	4.5	0	0	0
58	1	5.53387	12.425	4.5	0	0	0
59	1	7.99339	12.425	4.5	0	0	0
60	1	10.4529	12.425	4.5	0	0	0
61	1	1.84461	0.355	10.988	0	0	0
62	1	4.30412	0.355	10.988	0	0	0
63	1	6.76363	0.355	10.988	0	0	0
64	1	9.22314	0.355	10.988	0	0	0
65	1	11.6827	0.355	10.988	0	0	0
66	1	0.614849	2.485	10.988	0	0	0
67	1	1.84461	1.775	10.988	0	0	0
68	1	3.07436	2.485	10.988	0	0	0
69	1	4.30412	1.775	10.988	0	0	0
70	1	5.53387	2.485	10.988	0	0	0
71	1	6.76363	1.775	10.988	0	0	0
72	1	7.99339	2.485	10.988	0	0	0
73	1	9.22314	1.775	10.988	0	0	0
74	1	10.4529	2.485	10.988	0	0	0
75	1	11.6827	1.775	10.988	0	0	0
76	1	0.614849	3.905	10.988	0	0	0
77	1	1.84461	4.615	10.988	0	0	0
78	1	3.07436	3.905	10.988	0	0	0
79	1	4.30412	4.615	10.988	0	0	0
80	1	5.53387	3.905	10.988	0	0	0
81	1	6.76363	4.615	10.988	0	0	0
82	1	7.99339	3.905	10.988	0	0	0
83	1	9.22314	4.615	10.988	0	0	0
84	1	10.4529	3.905	10.988	0	0	0
85	1	11.6827	4.615	10.988	0	0	0
86	1	0.614849	6.745	10.988	0	0	0
87	1	1.84461	6.035	10.988	0	0	0
88	1	3.07436	6.745	10.988	0	0	0
89	1	4.30412	6.035	10.988	0	0	0
90	1	5.53387	6.745	10.988	0	0	0
91	1	6.76363	6.035	10.988	0	0	0
92	1	7.99339	6.745	10.988	0	0	0
93	1	9.22314	6.035	10.988	0	0	0
94	1	10.4529	6.745	10.988	0	0	0
95	1	11.6827	6.035	10.988	0	0	0
96	1	0.614849	8.165	10.988	0	0	0
97	1	1.84461	8.875	10.988	0	0	0
98	1	3.07436	8.165	10.988	0	0	0
99	1	4.30412	8.875	10.988	0	0	0
100	1	5.53387	8.165	10.988	0	0	0
101	1	6.76363	8.875	10.988	0	0	0
102	1	7.99339	8.165	10.988	0	0	0
103	1	9.22314	8.875	10.988	0	0	0
104	1	10.4529	8.165	10.988	0	0	0
105	1	11.6827	8.875	10.988	0	0	0
106	1	0.614849	11.005	10.988	0	0	0
107	1	1.84461	10.295	10.988	0	0	0
108	1	3.07436	11.005	10.988	0	0	0
109	1	4.30412	10.295	10.988	0	0	0
110	1	5.53387	11.005	10.988	0	0	0
111	1	6.76363	10.295	10.988	0	0	0
112	1	7.99339	11.005	10.988	0	0	0
113	1	9.22314	10.295	10.988	0	0	0
114	1	10.4529	11.005	10.988	0	0	0
115	1	11.6827	10.295	10.988	0	0	0
116	1	0.614849	12.425	10.988	0	0	0
117	1	3.07436	12.425	10.988	0	0	0
118	1	5.53387	12.425	10.988	0	0	0
119	1	7.99339	12.425	10.988	0	0	0
120	1	10.4529	12.425	10.988	0	0	0
121	1	1.84461	13.135	4.5	0	0	0
122	1	4.30412	13.135	4.5	0	0	0
123	1	6.76363	13.135	4.5	0	0	0
124	1	9.22314	13.135	4.5	0	0	0
125	1	11.6827	13.135	4.5	0	0	0
126	1	0.614849	15.265	4.5	0	0	0
127	1	1.84461	14.555	4.5	0	0	0
128	1	3.07436	15.265	4.5	0	0	0
129	1	4.30412	14.555	4.5	0	0	0
130	1	5.53387	15.265	4.5	0	0	0
131	1	6.76363	14.555	4.5	0	0	0
132	1	7.99339	15.265	4.5	0	0	0
133	1	9.22314	14.555	4.5	0	0	0
134	1	10.4529	15.265	4.5	0	0	0
135	1	11.6827	14.555	4.5	0	0	0
136	1	0.614849	16.685	4.5	0	0	0
137	1	1.84461	17.395	4.5	0	0	0
138	1	3.07436	16.685	4.5	0	0	0
139	1	4.30412	17.395	4.5	0	0	0
140	1	5.53387	16.685	4.5	0	0	0
141	1	6.76363	17.395	4.5	0	0	0
142	1	7.99339	16.685	4.5	0	0	0
143	1	9.22314	17.395	4.5	0	0	0
144	1	10.4529	16.685	4.5	0	0	0
145	1	11.6827	17.395	4.5	0	0	0
146	1	0.614849	19.525	4.5	0	0	0
147	1	1.84461	18.815	4.5	0	0	0
148	1	3.07436	19.525	4.5	0	0	0
149	1	4.30412	18.815	4.5	0	0	0
150	1	5.53387	19.525	4.5	0	0	0
151	1	6.76363	18.815	4.5	0	0	0
152	1	7.99339	19.525	4.5	0	0	0
153	1	9.22314	18.815	4.5	0	0	0
154	1	10.4529	19.525	4.5	0	0	0
155	1	11.6827	18.815	4.5	0	0	0
156	1	0.614849	20.945	4.5	0	0	0
157	1	1.84461	21.655	4.5	0	0	0
158	1	3.07436	20.945	4.5	0	0	0
159	1	4.30412	21.655	4.5	0	0	0
160	1	5.53387	20.945	4.5	0	0	0
161	1	6.76363	21.655	4.5	0	0	0
162	1	7.99339	20.945	4.5	0	0	0
163	1	9.22314	21.655	4.5	0	0	0
164	1	10.4529	20.945	4.5	0	0	0
165	1	11.6827	21.655	4.5	0	0	0
166	1	0.614849	23.785	4.5	0	0	0
167	1	1.84461	23.075	4.5	0	0	0
168	1	3.07436	23.785	4.5	0	0	0
169	1	4.30412	23.075	4.5	0	0	0
170	1	5.53387	23.785	4.5	0	0	0
171	1	6.76363	23.075	4.5	0	0	0
172	1	7.99339	23.785	4.5	0	0	0
173	1	9.22314	23.075	4.5	0	0	0
174	1	10.4529	23.785	4.5	0	0	0
175	1	11.6827	23.075	4.5	0	0	0
176	1	0.614849	25.205	4.5	0	0	0
177	1	3.07436	25.205	4.5	0	0	0
178	1	5.53387	25.205	4.5	0	0	0
179	1	7.99339	25.205	4.5	0	0	0
180	1	10.4529	25.205	4.5	0	0	0
181	1	1.84461	13.135	10.988	0	0	0
182	1	4.30412	13.135	10.988	0	0	0
183	1	6.76363	13.135	10.988	0	0	0
184	1	9.22314	13.135	10.988	0	0	0
185	1	11.6827	13.135	10.988	0	0	0
186	1	0.614849	15.265	10.988	0	0	0
187	1	1.84461	14.555	10.988	0	0	0
188	1	3.07436	15.265	10.988	0	0	0
189	1	4.30412	14.555	10.988	0	0	0
190	1	5.53387	15.265	10.988	0	0	0
191	1	6.76363	14.555	10.988	0	0	0
192	1	7.99339	15.265	10.988	0	0	0
193	1	9.22314	14.555	10.988	0	0	0
194	1	10.4529	15.265	10.988	0	0	0
195	1	11.6827	14.555	10.988	0	0	0
196	1	0.614849	16.685	10.988	0	0	0
197	1	1.84461	17.395	10.988	0	0	0
198	1	3.07436	16.685	10.988	0	0	0
199	1	4.30412	17.395	10.988	0	0	0
200	1	5.53387	16.685	10.988	0	0	0
201	1	6.76363	17.395	10.988	0	0	0
202	1	7.99339	16.685	10.988	0	0	0
203	1	9.22314	17.395	10.988	0	0	0
204	1	10.4529	16.685	10.988	0	0	0
205	1	11.6827	17.395	10.988	0	0	0
206	1	0.614849	19.525	10.988	0	0	0
207	1	1.84461	18.815	10.988	0	0	0
208	1	3.07436	19.525	10.988	0	0	0
209	1	4.30412	18.815	10.988	0	0	0
210	1	5.53387	19.525	10.988	0	0	0
211	1	6.76363	18.815	10.988	0	0	0
212	1	7.99339	19.525	10.988	0	0	0
213	1	9.22314	18.815	10.988	0	0	0
214	1	10.4529	19.525	10.988	0	0	0
215	1	11.6827	18.815	10.988	0	0	0
216	1	0.614849	20.945	10.988	0	0	0
217	1	1.84461	21.655	10.988	0	0	0
218	1	3.07436	20.945	10.988	0	0	0
219	1	4.30412	21.655	10.988	0	0	0
220	1	5.53387	20.945	10.988	0	0	0
221	1	6.76363	21.655	10.988	0	0	0
222	1	7.99339	20.945	10.988	0	0	0
223	1	9.22314	21.655	10.988	0	0	0
224	1	10.4529	20.945	10.988	0	0	0
225	1	11.6827	21.655	10.988	0	0	0
226	1	0.614849	23.785	10.988	0	0	0
227	1	1.84461	23.075	10.988	0	0	0
228	1	3.07436	23.785	10.988	0	0	0
229	1	4.30412	23.075	10.988	0	0	0
230	1	5.53387	23.785	10.988	0	0	0
231	1	6.76363	23.075	10.988	0	0	0
232	1	7.99339	23.785	10.988	0	0	0
233	1	9.22314	23.075	10.988	0	0	0
234	1	10.4529	23.785	10.988	0	0	0
235	1	11.6827	23.075	10.988	0	0	0
236	1	0.614849	25.205	10.988	0	0	0
237	1	3.07436	25.205	10.988	0	0	0
238	1	5.53387	25.205	10.988	0	0	0
239	1	7.99339	25.205	10.988	0	0	0
240	1	10.4529	25.205	10.988	0	0	0
241	1	14.1421	0.355	4.5	0	0	0
242	1	16.6016	0.355	4.5	0	0	0
243	1	19.0611	0.355	4.5	0	0	0
244	1	21.5206	0.355	4.5	0	0	0
245	1	23.9802	0.355	4.5	0	0	0
246	1	12.9123	2.485	4.5	0	0	0
247	1	14.1421	1.775	4.5	0	0	0
248	1	15.3719	2.485	4.5	0	0	0
249	1	16.6016	1.775	4.5	0	0	0
250	1	17.8314	2.485	4.5	0	0	0
251	1	19.0611	1.775	4.5	0	0	0
252	1	20.2909	2.485	4.5	0	0	0
253	1	21.5206	1.775	4.5	0	0	0
254	1	22.7504	2.485	4.5	0	0	0
255	1	23.9802	1.775	4.5	0	0	0
256	1	12.9123	3.905	4.5	0	0	0
257	1	14.1421	4.615	4.5	0	0	0
258	1	15.3719	3.905	4.5	0	0	0
259	1	16.6016	4.615	4.5	0	0	0
260	1	17.8314	3.905	4.5	0	0	0
261	1	19.0611	4.615	4.5	0	0	0
262	1	20.2909	3.905	4.5	0	0	0
263	1	21.5206	4.615	4.5	0	0	0
264	1	22.7504	3.905	4.5	0	0	0
265	1	23.9802	4.615	4.5	0	0	0
266	1	12.9123	6.745	4.5	0	0	0
267	1	14.1421	6.035	4.5	0	0	0
268	1	15.3719	6.745	4.5	0	0	0
269	1	16.6016	6.035	4.5	0	0	0
270	1	17.8314	6.745	4.5	0	0	0
271	1	19.0611	6.035	4.5	0	0	0
272	1	20.2909	6.745	4.5	0	0	0
273	1	21.5206	6.035	4.5	0	0	0
274	1	22.7504	6.745	4.5	0	0	0
275	1	23.9802	6.035	4.5	0	0	0
276	1	12.9123	8.165	4.5	0	0	0
277	1	14.1421	8.875	4.5	0	0	0
278	1	15.3719	8.165	4.5	0	0	0
279	1	16.6016	8.875	4.5	0	0	0
280	1	17.8314	8.165	4.5	0	0	0
281	1	19.0611	8.875	4.5	0	0	0
282	1	20.2909	8.165	4.5	0	0	0
283	1	21.5206	8.875	4.5	0	0	0
284	1	22.7504	8.165	4.5	0	0	0
285	1	23.9802	8.875	4.5	0	0	0
286	1	12.9123	11.005	4.5	0	0	0
287	1	14.1421	10.295	4.5	0	0	0
288	1	15.3719	11.005	4.5	0	0	0
289	1	16.6016	10.295	4.5	0	0	0
290	1	17.8314	11.005	4.5	0	0	0
291	1	19.0611	10.295	4.5	0	0	0
292	1	20.2909	11.005	4.5	0	0	0
293	1	21.5206	10.295	4.5	0	0	0
294	1	22.7504	11.005	4.5	0	0	0
295	1	23.9802	10.295	4.5	0	0	0
296	1	12.9123	12.425	4.5	0	0	0
297	1	15.3719	12.425	4.5	0	0	0
298	1	17.8314	12.425	4.5	0	0	0
299	1	20.2909	12.425	4.5	0	0	0
300	1	22.7504	12.425	4.5	0	0	0
301	1	14.1421	0.355	10.988	0	0	0
302	1	16.6016	0.355	10.988	0	0	0
303	1	19.0611	0.355	10.988	0	0	0
304	1	21.5206	0.355	10.988	0	0	0
305	1	23.9802	0.355	10.988	0	0	0
306	1	12.9123	2.485	10.988	0	0	0
307	1	14.1421	1.775	10.988	0	0	0
308	1	15.3719	2.485	10.988	0	0	0
309	1	16.6016	1.775	10.988	0	0	0
310	1	17.8314	2.485	10.988	0	0	0
311	1	19.0611	1.775	10.988	0	0	0
312	1	20.2909	2.485	10.988	0	0	0
313	1	21.5206	1.775	10.988	0	0	0
314	1	22.7504	2.485	10.988	0	0	0
315	1	23.9802	1.775	10.988	0	0	0
316	1	12.9123	3.905	10.988	0	0	0
317	1	14.1421	4.615	10.988	0	0	0
318	1	15.3719	3.905	10.988	0	0	0
319	1	16.6016	4.615	10.988	0	0	0
320	1	17.8314	3.905	10.988	0	0	0
321	1	19.0611	4.615	10.988	0	0	0
322	1	20.2909	3.905	10.988	0	0	0
323	1	21.5206	4.615	10.988	0	0	0
324	1	22.7504	3.905	10.988	0	0	0
325	1	23.9802	4.615	10.988	0	0	0
326	1	12.9123	6.745	10.988	0	0	0
327	1	14.1421	6.035	10.988	0	0	0
328	1	15.3719	6.745	10.988	0	0	0
329	1	16.6016	6.035	10.988	0	0	0
330	1	17.8314	6.745	10.988	0	0	0
331	1	19.0611	6.035	10.988	0	0	0
332	1	20.2909	6.745	10.988	0	0	0
333	1	21.5206	6.035	10.988	0	0	0
334	1	22.7504	6.745	10.988	0	0	0
335	1	23.9802	6.035	10.988	0	0	0
336	1	12.9123	8.165	10.988	0	0	0
337	1	14.1421	8.875	10.988	0	0	0
338	1	15.3719	8.165	10.988	0	0	0
339	1	16.6016	8.875	10.988	0	0	0
340	1	17.8314	8.165	10.988	0	0	0
341	1	19.0611	8.875	10.988	0	0	0
342	1	20.2909	8.165	10.988	0	0	0
343	1	21.5206	8.875	10.988	0	0	0
344	1	22.7504	8.165	10.988	0	0	0
345	1	23.9802	8.875	10.988	0	0	0
346	1	12.9123	11.005	10.988	0	0	0
347	1	14.1421	10.295	10.988	0	0	0
348	1	15.3719	11.005	10.988	0	0	0
349	1	16.6016	10.295	10.988	0	0	0
350	1	17.8314	11.005	10.988	0	0	0
351	1	19.0611	10.295	10.988	0	0	0
352	1	20.2909	11.005	10.988	0	0	0
353	1	21.5206	10.295	10.988	0	0	0
354	1	22.7504	11.005	10.988	0	0	0
355	1	23.9802	10.295	10.988	0	0	0
356	1	12.9123	12.425	10.988	0	0	0
357	1	15.3719	12.425	10.988	0	0	0
358	1	17.8314	12.425	10.988	0	0	0
359	1	20.2909	12.425	10.988	0	0	0
360	1	22.7504	12.425	10.988	0	0	0
361	1	14.1421	13.135	4.5	0	0	0
362	1	16.6016	13.135	4.5	0	0	0
363	1	19.0611	13.135	4.5	0	0	0
364	1	21.5206	13.135	4.5	0	0	0
365	1	23.9802	13.135	4.5	0	0	0
366	1	12.9123	15.265	4.5	0	0	0
367	1	14.1421	14.555	4.5	0	0	0
368	1	15.3719	15.265	4.5	0	0	0
369	1	16.6016	14.555	4.5	0	0	0
370	1	17.8314	15.265	4.5	0	0	0
371	1	19.0611	14.555	4.5	0	0	0
372	1	20.2909	15.265	4.5	0	0	0
373	1	21.5206	14.555	4.5	0	0	0
374	1	22.7504	15.265	4.5	0	0	0
375	1	23.9802	14.555	4.5	0	0	0
376	1	12.9123	16.685	4.5	0	0	0
377	1	14.1421	17.395	4.5	0	0	0
378	1	15.3719	16.685	4.5	0	0	0
379	1	16.6016	17.395	4.5	0	0	0
380	1	17.8314	16.685	4.5	0	0	0
381	1	19.0611	17.395	4.5	0	0	0
382	1	20.2909	16.685	4.5	0	0	0
383	1	21.5206	17.395	4.5	0	0	0
384	1	22.7504	16.685	4.5	0	0	0
385	1	23.9802	17.395	4.5	0	0	0
386	1	12.9123	19.525	4.5	0	0	0
387	1	14.1421	18.815	4.5	0	0	0
388	1	15.3719	19.525	4.5	0	0	0
389	1	16.6016	18.815	4.5	0	0	0
390	1	17.8314	19.525	4.5	0	0	0
391	1	19.0611	18.815	4.5	0	0	0
392	1	20.2909	19.525	4.5	0	0	0
393	1	21.5206	18.815	4.5	0	0	0
394	1	22.7504	19.525	4.5	0	0	0
395	1	23.9802	18.815	4.5	0	0	0
396	1	12.9123	20.945	4.5	0	0	0
397	1	14.1421	21.655	4.5	0	0	0
398	1	15.3719	20.945	4.5	0	0	0
399	1	16.6016	21.655	4.5	0	0	0
400	1	17.8314	20.945	4.5	0	0	0
401	1	19.0611	21.655	4.5	0	0	0
402	1	20.2909	20.945	4.5	0	0	0
403	1	21.5206	21.655	4.5	0	0	0
404	1	22.7504	20.945	4.5	0	0	0
405	1	23.9802	21.655	4.5	0	0	0
406	1	12.9123	23.785	4.5	0	0	0
407	1	14.1421	23.075	4.5	0	0	0
408	1	15.3719	23.785	4.5	0	0	0
409	1	16.6016	23.075	4.5	0	0	0
410	1	17.8314	23.785	4.5	0	0	0
411	1	19.0611	23.075	4.5	0	0	0
412	1	20.2909	23.785	4.5	0	0	0
413	1	21.5206	23.075	4.5	0	0	0
414	1	22.7504	23.785	4.5	0	0	0
415	1	23.9802	23.075	4.5	0	0	0
416	1	12.9123	25.205	4.5	0	0	0
417	1	15.3719	25.205	4.5	0	0	0
418	1	17.8314	25.205	4.5	0	0	0
419	1	20.2909	25.205	4.5	0	0	0
420	1	22.7504	25.205	4.5	0	0	0
421	1	14.1421	13.135	10.988	0	0	0
422	1	16.6016	13.135	10.988	0	0	0
423	1	19.0611	13.135	10.988	0	0	0
424	1	21.5206	13.135	10.988	0	0	0
425	1	23.9802	13.135	10.988	0	0	0
426	1	12.9123	15.265	10.988	0	0	0
427	1	14.1421	14.555	10.988	0	0	0
428	1	15.3719	15.265	10.988	0	0	0
429	1	16.6016	14.555	10.988	0	0	0
430	1	17.8314	15.265	10.988	0	0	0
431	1	19.0611	14.555	10.988	0	0	0
432	1	20.2909	15.265	10.988	0	0	0
433	1	21.5206	14.555	10.988	0	0	0
434	1	22.7504	15.265	10.988	0	0	0
435	1	23.9802	14.555	10.988	0	0	0
436	1	12.9123	16.685	10.988	0	0	0
437	1	14.1421	17.395	10.988	0	0	0
438	1	15.3719	16.685	10.988	0	0	0
439	1	16.6016	17.395	10.988	0	0	0
440	1	17.8314	16.685	10.988	0	0	0
441	1	19.0611	17.395	10.988	0	0	0
442	1	20.2909	16.685	10.988	0	0	0
443	1	21.5206	17.395	10.988	0	0	0
444	1	22.7504	16.685	10.988	0	0	0
445	1	23.9802	17.395	10.988	0	0	0
446	1	12.9123	19.525	10.988	0	0	0
447	1	14.1421	18.815	10.988	0	0	0
448	1	15.3719	19.525	10.988	0	0	0
449	1	16.6016	18.815	10.988	0	0	0
450	1	17.8314	19.525	10.988	0	0	0
451	1	19.0611	18.815	10.988	0	0	0
452	1	20.2909	19.525	10.988	0	0	0
453	1	21.5206	18.815	10.988	0	0	0
454	1	22.7504	19.525	10.988	0	0	0
455	1	23.9802	18.815	10.988	0	0	0
456	1	12.9123	20.945	10.988	0	0	0
457	1	14.1421	21.655	10.988	0	0	0
458	1	15.3719	20.945	10.988	0	0	0
459	1	16.6016	21.655	10.988	0	0	0
460	1	17.8314	20.945	10.988	0	0	0
461	1	19.0611	21.655	10.988	0	0	0
462	1	20.2909	20.945	10.988	0	0	0
463	1	21.5206	21.655	10.988	0	0	0
464	1	22.7504	20.945	10.988	0	0	0
465	1	23.9802	21.655	10.988	0	0	0
466	1	12.9123	23.785	10.988	0	0	0
467	1	14.1421	23.075	10.988	0	0	0
468	1	15.3719	23.785	10.988	0	0	0
469	1	16.6016	23.075	10.988	0	0	0
470	1	17.8314	23.785	10.988	0	0	0
471	1	19.0611	23.075	10.988	0	0	0
472	1	20.2909	23.785	10.988	0	0	0
473	1	21.5206	23.075	10.988	0	0	0
474	1	22.7504	23.785	10.988	0	0	0
475	1	23.9802	23.075	10.988	0	0	0
476	1	12.9123	25.205	10.988	0	0	0
477	1	15.3719	25.205	10.988	0	0	0
478	1	17.8314	25.205	10.988	0	0	0
479	1	20.2909	25.205	10.988	0	0	0
480	1	22.7504	25.205	10.988	0	0	0
481	1	9.187518509	21.16266089	7.665192913	-1	-1	0
482	2	10.37873521	21.19351391	7.688549567	-1	-1	0
483	2	8.034552526	21.01314882	7.693870912	-1	-1	0
484	2	12.93786792	22.21372834	7.904777202	0	-1	0
485	2	11.19680702	15.35219196	7.971321434	-1	-2	0
486	2	19.24893116	15.16991673	7.559132212	-1	-2	0
487	2	21.86153771	4.31272218	7.732911008	-2	0	0
488	2	7.052499697	7.299327175	7.923936114	-2	-1	0
489	2	14.86471192	6.514844667	7.673293609	0	0	0
490	2	3.517927383	11.04399468	7.885872601	-2	0	0
491	2	6.243260711	10.34231378	7.923090208	-3	-1	0
492	2	11.13464483	18.27458095	7.296658204	-1	-2	0
493	2	14.18166916	16.87477362	7.6247004	-2	0	0
494	2	12.52489199	8.10343797	7.703889517	-3	0	0
495	2	13.81197708	13.85884829	7.61624432	-2	-2	0
496	2	20.76791078	1.700210094	7.2709829	-1	0	0
497	2	2.456908533	23.14847959	7.71909832	-1	-1	0
498	2	15.67422747	23.09380789	8.025370996	-2	-1	0
499	2	15.81646643	10.56787137	7.557546046	-1	-1	0
500	2	11.47708465	24.42521399	7.595059659	-2	-1	0
501	2	16.50618193	20.30714046	8.110594127	-2	0	0
502	2	7.832649174	12.57561626	7.480279389	-1	0	0
503	2	17.33537225	0.608222214	7.871571202	-2	0	0
504	2	13.15875172	10.80376826	7.641201415	-2	1	0
505	2	14.21501746	0.648561554	7.53439637	-2	1	0
506	2	10.57930554	12.43139619	7.75847708	-2	2	0
507	2	21.04838941	12.49713475	7.715600659	-2	-1	0
508	2	16.53526704	13.79614137	8.051762232	-1	1	0
509	2	1.59566389	17.59440317	7.910579778	-1	-1	0
510	2	9.139869376	0.914603418	7.825522217	0	-1	0
511	2	21.89358637	21.92514652	7.97106883	-2	0	0
512	2	0.447320201	10.59239311	7.779966025	-1	0	0
513	2	19.22700318	20.87518294	7.820855587	-1	-1	0
514	2	23.60452416	0.939870124	7.499406519	-2	1	0
515	2	12.09664138	4.886291022	7.752323545	-1	-1	0
516	2	5.651792726	22.68279983	7.764637951	-1	-1	0
517	2	13.66532478	19.60112287	7.650149329	-1	-1	0
518	2	7.685072074	15.28034951	7.865804319	-2	0	0
519	2	18.51866636	3.257149751	8.196386894	-1	0	0
520	2	3.384389686	4.224122502	7.792360644	-1	-1	0
521	2	8.099252329	23.84306789	7.932919187	-1	-1	0
522	2	6.798713479	4.570066217	7.77887496	-1	1	0
523	2	24.31123236	13.39795679	7.989587538	-1	0	0
524	2	18.84900421	23.96177104	7.603007659	-2	0	0
525	2	4.908964398	16.42251554	7.568278755	0	0	0
526	2	4.672578228	25.13996512	7.771151507	0	-1	0
527	2	0.187811992	3.310415637	7.76418425	-1	0	0
528	2	2.266235771	0.931595114	8.072157146	0	1	0
529	2	24.30116429	20.59189573	7.77081116	-2	-1	0
530	2	22.40772592	10.23657368	7.356230148	-1	0	0
531	2	18.42763925	11.86493907	7.923422141	0	0	0
532	2	2.815614742	20.34651272	7.927775872	-1	-1	0
533	2	19.60685958	8.894971442	7.850358592	-1	0	0
534	2	16.98548364	8.184347658	7.808533896	-1	0	0
535	2	2.160392001	14.97354645	8.254556727	-2	-1	0
536	2	8.265904346	17.98386094	7.700516041	-1	1	0
537	2	4.696416995	13.57335181	8.119313485	0	0	0
538	2	23.19741888	18.02157806	7.540088002	-1	0	0
539	2	15.33054582	3.475570774	7.982325625	0	-1	0
540	2	16.88762756	16.85207537	8.008667043	-1	0	0
541	2	22.14263035	15.3208581	7.488325879	-2	1	0
542	2	9.763256418	6.523673725	7.809264857	-1	0	0
543	2	5.274373342	2.272688286	7.817288161	0	0	0
544	2	5.179186049	19.07496637	7.564828391	-1	-1	0
545	2	19.33914748	6.054623213	7.666845896	-2	1	0
546	2	9.240408537	3.703705848	7.703119639	-1	0	0
547	2	1.659945307	8.301795777	7.567372931	-1	1	0
548	2	24.41447046	6.288082858	7.670138962	-1	1	0
549	2	11.84038169	1.931955351	7.959449111	-1	0	0
550	2	21.85257337	7.269221057	8.193520861	-1	1	0
551	2	21.48994093	24.6761015	7.447834372	-1	0	0
552	2	20.3585659	18.38155548	7.646769584	-2	0	0
553	2	4.044972101	6.72072307	8.134787954	-1	0	0
554	2	9.670083159	9.611867119	7.574858464	0	1	0
555	2	24.31380577	23.86026482	7.616918899	-1	0	0
556	3	12.46059995	22.56804465	7.087976311	0	-1	0
557	3	13.79434436	22.69138829	7.94101528	0	-1	0
558	3	11.90209638	14.85996748	7.527079708	-1	-2	0
559	3	10.42463883	15.38892426	7.35201738	-1	-2	0
560	3	19.21113161	14.68254587	8.430909708	-1	-2	0
561	3	18.42715641	15.72594031	7.52645963	-1	-2	0
562	3	22.78970983	4.216608508	7.350269053	-2	0	0
563	3	21.95253675	4.642561426	8.600076839	-2	0	0
564	3	7.060750186	8.16202069	7.499316899	-2	-1	0
565	3	8.018651169	7.197343778	8.115013758	-2	-1	0
566	3	15.68887382	7.047201287	7.896940825	0	0	0
567	3	15.23669551	5.657523355	7.441761363	0	0	0
568	3	3.277183148	10.90303365	6.932692113	-2	0	0
569	3	4.338305737	10.54207759	7.9222205	-2	0	0
570	3	6.423028437	10.16279872	8.860170377	-3	-1	0
571	3	6.795812265	11.13993339	7.868733647	-3	-1	0
572	3	11.46839626	17.42178013	7.651989892	-1	-2	0
573	3	11.56171932	18.98698793	7.891500978	-1	-2	0
574	3	13.81749893	15.98411837	7.816608788	-2	0	0
575	3	13.44846027	17.46051589	7.74702845	-2	0	0
576	3	13.13297794	7.803186579	6.966955034	-3	0	0
577	3	12.87059711	7.522417508	8.441378924	-3	0	0
578	3	14.81503065	14.06426707	7.831954877	-2	-2	0
579	3	13.56653942	13.21797238	8.265246988	-2	-2	0
580	3	21.26910658	2.41533356	7.705532353	-1	1	0
581	3	21.03091594	0.772540831	7.520218039	-1	0	0
582	3	2.683880455	23.35603595	6.829257462	-1	-1	0
583	3	2.619649365	22.2224561	7.787047061	-1	-1	0
584	3	16.42503026	23.53237119	7.542893416	-2	-1	0
585	3	15.9147356	22.13329588	7.983857387	-2	-1	0
586	3	16.15351053	11.43806421	7.756839914	-1	-1	0
587	3	14.81762822	10.5642127	7.509063571	-1	-1	0
588	3	11.02445144	24.19982182	8.421774959	-2	-1	0
589	3	10.78243661	24.53030293	6.958180327	-2	-1	0
590	3	16.29248974	19.83832313	7.280152579	-2	0	0
591	3	17.43572064	20.39525665	8.269013976	-2	0	0
592	3	8.643565349	12.27737145	7.111189131	-1	0	0
593	3	7.775807656	13.51606448	7.417351977	-1	0	0
594	3	17.37184861	1.081837817	8.659583348	-2	0	0
595	3	17.24414196	1.352187879	7.242939533	-2	0	0
596	3	12.83118761	9.890551325	7.730557421	-2	1	0
597	3	12.37764337	11.36005251	7.392638942	-2	1	0
598	3	15.15661021	0.424772388	7.760782178	-2	1	0
599	3	13.84593494	25.31772312	7.278874043	-2	0	0
600	3	10.05875897	13.15902153	8.216680517	-2	2	0
601	3	10.52707432	11.67280976	8.374204174	-2	2	0
602	3	21.26987224	13.14779125	7.060932399	-2	-1	0
603	3	21.76240887	11.83849026	7.746277497	-2	-1	0
604	3	16.79835564	14.5568885	8.530460646	0	1	0
605	3	17.3954174	13.46704573	7.610270883	-1	1	0
606	3	1.861273489	16.74437319	8.219398372	-1	-1	0
607	3	1.929513867	17.70244202	7.012374549	-1	0	0
608	3	8.95729963	1.875350281	7.752947377	0	-1	0
609	3	9.979823523	0.945331118	8.341148794	0	-1	0
610	3	21.32796831	22.10341938	7.206470282	-2	0	0
611	3	21.23531592	21.6557121	8.64105505	-2	0	0
612	3	0.912179893	11.24133479	8.28280408	-1	0	0
613	3	1.026282164	9.72060612	7.743409047	-1	0	0
614	3	19.11250902	21.17224981	6.882893577	-1	-1	0
615	3	19.75043147	19.99004073	7.72748276	-1	-1	0
616	3	23.79157419	25.52036098	7.628788928	-2	0	0
617	3	23.41556323	1.044139691	6.578339242	-2	1	0
618	3	13.08212337	4.99875267	7.930689324	-1	-1	0
619	3	12.16131965	3.871567019	7.890854881	-1	-1	0
620	3	4.966730466	23.29745146	7.689885326	-1	-1	0
621	3	5.357237603	21.95480636	8.372731296	-1	-1	0
622	3	13.48778	20.6351044	7.64464472	-1	-1	0
623	3	14.09921868	19.45097202	8.523755235	-1	-1	0
624	3	6.884301973	15.77197968	7.614838857	-2	0	0
625	3	8.125226944	15.92742445	8.393094092	-2	0	0
626	3	18.68044266	4.165819443	7.887103928	-1	0	0
627	3	19.28646721	2.757720984	7.868334578	-1	0	0
628	3	3.555960112	4.973194943	7.187422982	-1	-1	0
629	3	4.125930376	3.687660997	7.622658013	-1	-1	0
630	3	7.193772655	23.52894917	7.936424488	-1	-1	0
631	3	8.083003028	24.77557387	8.016412772	-1	-1	0
632	3	6.532917218	5.511312595	7.814138921	-1	1	0
633	3	6.37884741	4.361693495	6.939069879	-1	1	0
634	3	24.01498974	12.8831625	7.25025317	-1	0	0
635	3	23.49614107	13.90167182	8.040895932	-1	0	0
636	3	18.90885048	23.46551349	8.415272987	-2	0	0
637	3	18.31312192	24.80969971	7.705952079	-2	0	0
638	3	4.376339988	16.05043998	6.843057115	0	0	0
639	3	4.706858281	15.77113747	8.276550189	0	0	0
640	3	5.369749198	25.05683123	8.448575834	0	-1	0
641	3	3.813312823	25.3790427	8.191660099	0	-1	0
642	3	1.136836338	3.109044383	7.95107712	-1	0	0
643	3	24.31090562	2.423313937	7.78197482	-2	0	0
644	3	1.581761749	0.255128761	8.313774503	0	0	0
645	3	2.153657599	0.890701014	7.112457537	0	1	0
646	3	0.204313898	20.47169256	8.593281704	-1	-1	0
647	3	23.49433837	21.07278113	8.094605517	-2	-1	0
648	3	23.31076842	10.28977852	7.749186865	-1	0	0
649	3	22.04023592	9.363111999	7.298856835	-1	0	0
650	3	18.48252005	11.47033314	7.034263365	0	0	0
651	3	19.33276597	12.09903434	8.139149415	0	0	0
652	3	2.159778951	19.61835361	8.004699268	-1	-1	0
653	3	3.67966612	19.93547169	7.883987337	-1	-1	0
654	3	18.62057968	8.865046858	7.876565685	-1	0	0
655	3	19.7531124	9.724004524	8.36750283	-1	0	0
656	3	16.48073296	9.023247913	7.437832485	-1	0	0
657	3	17.28436606	7.774217044	6.988729641	-1	0	0
658	3	1.332596282	14.3224173	8.280971985	-2	-1	0
659	3	2.971387013	14.41607472	8.314977995	-2	-1	0
660	3	9.193570181	18.13260395	7.371257728	-1	1	0
661	3	8.046999043	18.70468515	8.264708779	-1	1	0
662	3	5.500579239	13.43232526	7.600193308	0	0	0
663	3	4.240109569	12.70321014	8.012810041	0	0	0
664	3	23.8958283	17.51628862	8.009458134	-1	0	0
665	3	23.61164022	18.91332467	7.433480994	-1	0	0
666	3	14.78843642	2.860712305	7.45593977	0	-1	0
667	3	16.21948419	3.492716973	7.668825911	0	-1	0
668	3	15.92333941	16.83931001	7.882031323	-1	0	0
669	3	17.20364079	17.60967469	8.474891382	-1	0	0
670	3	21.2106928	15.48415948	7.377510039	-2	1	0
671	3	22.50335317	15.73230697	6.710488928	-2	1	0
672	3	9.809829593	5.652319144	8.254888182	-1	0	0
673	3	10.69897782	6.747536989	7.661145603	-1	0	0
674	3	4.867056394	1.351033411	7.717401989	0	0	0
675	3	5.426185045	2.214745344	8.751376928	0	0	0
676	3	5.082637692	18.12623068	7.764826569	-1	-1	0
677	3	5.619523621	19.01561577	6.728164751	-1	-1	0
678	3	20.26373099	5.937486545	7.451820274	-2	1	0
679	3	19.49125196	6.384815248	8.529978985	-2	1	0
680	3	8.374237472	4.232450602	7.618686671	-1	0	0
681	3	9.831853436	3.880866581	6.969068876	-1	0	0
682	3	0.891680431	7.706770304	7.6055153	-1	1	0
683	3	2.461503288	7.870751195	7.94000214	-1	1	0
684	3	23.92148248	6.365953616	8.473970188	-1	1	0
685	3	0.353862111	5.511845328	7.79979944	0	1	0
686	3	12.55550945	1.425928375	8.330228506	-1	0	0
687	3	12.00404484	1.92317507	6.968530146	-1	0	0
688	3	20.97714509	7.693066079	8.001004085	-1	1	0
689	3	22.09371483	7.13282717	7.255007743	-1	1	0
690	3	21.69634894	24.43026599	8.358640309	-1	0	0
691	3	20.5399963	24.43457139	7.47848613	-1	0	0
692	3	19.9198163	17.75408626	7.063946071	-2	0	0
693	3	21.32738792	18.15127875	7.715654624	-2	0	0
694	3	3.861887616	5.825547944	8.532439513	-1	0	0
695	3	4.801056765	7.135185347	8.619371347	-1	0	0
696	3	9.686796571	9.819313312	6.632103049	0	1	0
697	3	10.22579776	8.831975464	7.70330158	0	1	0
698	3	23.6875452	23.18134888	7.417876862	-1	0	0
699	3	0.522866548	23.42626299	7.890685801	0	0	0