LAMMPS data file via write_data, version 29 Aug 2024, timestep = 520000, units = real

699 atoms
3 atom types

0 24.595 xlo xhi
0 25.56 ylo yhi
0 16.488 zlo zhi

Masses

1 12.011
2 15.9994
3 2.014101777

Atoms # atomic

1	1	1.84461	0.355	4.5
2	1	4.30412	0.355	4.5
3	1	6.76363	0.355	4.5
4	1	9.22314	0.355	4.5
5	1	11.6827	0.355	4.5
6	1	0.614849	2.485	4.5
7	1	1.84461	1.775	4.5
8	1	3.07436	2.485	4.5
9	1	4.30412	1.775	4.5
10	1	5.53387	2.485	4.5
11	1	6.76363	1.775	4.5
12	1	7.99339	2.485	4.5
13	1	9.22314	1.775	4.5
14	1	10.4529	2.485	4.5
15	1	11.6827	1.775	4.5
16	1	0.614849	3.905	4.5
17	1	1.84461	4.615	4.5
18	1	3.07436	3.905	4.5
19	1	4.30412	4.615	4.5
20	1	5.53387	3.905	4.5
21	1	6.76363	4.615	4.5
22	1	7.99339	3.905	4.5
23	1	9.22314	4.615	4.5
24	1	10.4529	3.905	4.5
25	1	11.6827	4.615	4.5
26	1	0.614849	6.745	4.5
27	1	1.84461	6.035	4.5
28	1	3.07436	6.745	4.5
29	1	4.30412	6.035	4.5
30	1	5.53387	6.745	4.5
31	1	6.76363	6.035	4.5
32	1	7.99339	6.745	4.5
33	1	9.22314	6.035	4.5
34	1	10.4529	6.745	4.5
35	1	11.6827	6.035	4.5
36	1	0.614849	8.165	4.5
37	1	1.84461	8.875	4.5
38	1	3.07436	8.165	4.5
39	1	4.30412	8.875	4.5
40	1	5.53387	8.165	4.5
41	1	6.76363	8.875	4.5
42	1	7.99339	8.165	4.5
43	1	9.22314	8.875	4.5
44	1	10.4529	8.165	4.5
45	1	11.6827	8.875	4.5
46	1	0.614849	11.005	4.5
47	1	1.84461	10.295	4.5
48	1	3.07436	11.005	4.5
49	1	4.30412	10.295	4.5
50	1	5.53387	11.005	4.5
51	1	6.76363	10.295	4.5
52	1	7.99339	11.005	4.5
53	1	9.22314	10.295	4.5
54	1	10.4529	11.005	4.5
55	1	11.6827	10.295	4.5
56	1	0.614849	12.425	4.5
57	1	3.07436	12.425	4.5
58	1	5.53387	12.425	4.5
59	1	7.99339	12.425	4.5
60	1	10.4529	12.425	4.5
61	1	1.84461	0.355	10.988
62	1	4.30412	0.355	10.988
63	1	6.76363	0.355	10.988
64	1	9.22314	0.355	10.988
65	1	11.6827	0.355	10.988
66	1	0.614849	2.485	10.988
67	1	1.84461	1.775	10.988
68	1	3.07436	2.485	10.988
69	1	4.30412	1.775	10.988
70	1	5.53387	2.485	10.988
71	1	6.76363	1.775	10.988
72	1	7.99339	2.485	10.988
73	1	9.22314	1.775	10.988
74	1	10.4529	2.485	10.988
75	1	11.6827	1.775	10.988
76	1	0.614849	3.905	10.988
77	1	1.84461	4.615	10.988
78	1	3.07436	3.905	10.988
79	1	4.30412	4.615	10.988
80	1	5.53387	3.905	10.988
81	1	6.76363	4.615	10.988
82	1	7.99339	3.905	10.988
83	1	9.22314	4.615	10.988
84	1	10.4529	3.905	10.988
85	1	11.6827	4.615	10.988
86	1	0.614849	6.745	10.988
87	1	1.84461	6.035	10.988
88	1	3.07436	6.745	10.988
89	1	4.30412	6.035	10.988
90	1	5.53387	6.745	10.988
91	1	6.76363	6.035	10.988
92	1	7.99339	6.745	10.988
93	1	9.22314	6.035	10.988
94	1	10.4529	6.745	10.988
95	1	11.6827	6.035	10.988
96	1	0.614849	8.165	10.988
97	1	1.84461	8.875	10.988
98	1	3.07436	8.165	10.988
99	1	4.30412	8.875	10.988
100	1	5.53387	8.165	10.988
101	1	6.76363	8.875	10.988
102	1	7.99339	8.165	10.988
103	1	9.22314	8.875	10.988
104	1	10.4529	8.165	10.988
105	1	11.6827	8.875	10.988
106	1	0.614849	11.005	10.988
107	1	1.84461	10.295	10.988
108	1	3.07436	11.005	10.988
109	1	4.30412	10.295	10.988
110	1	5.53387	11.005	10.988
111	1	6.76363	10.295	10.988
112	1	7.99339	11.005	10.988
113	1	9.22314	10.295	10.988
114	1	10.4529	11.005	10.988
115	1	11.6827	10.295	10.988
116	1	0.614849	12.425	10.988
117	1	3.07436	12.425	10.988
118	1	5.53387	12.425	10.988
119	1	7.99339	12.425	10.988
120	1	10.4529	12.425	10.988
121	1	1.84461	13.135	4.5
122	1	4.30412	13.135	4.5
123	1	6.76363	13.135	4.5
124	1	9.22314	13.135	4.5
125	1	11.6827	13.135	4.5
126	1	0.614849	15.265	4.5
127	1	1.84461	14.555	4.5
128	1	3.07436	15.265	4.5
129	1	4.30412	14.555	4.5
130	1	5.53387	15.265	4.5
131	1	6.76363	14.555	4.5
132	1	7.99339	15.265	4.5
133	1	9.22314	14.555	4.5
134	1	10.4529	15.265	4.5
135	1	11.6827	14.555	4.5
136	1	0.614849	16.685	4.5
137	1	1.84461	17.395	4.5
138	1	3.07436	16.685	4.5
139	1	4.30412	17.395	4.5
140	1	5.53387	16.685	4.5
141	1	6.76363	17.395	4.5
142	1	7.99339	16.685	4.5
143	1	9.22314	17.395	4.5
144	1	10.4529	16.685	4.5
145	1	11.6827	17.395	4.5
146	1	0.614849	19.525	4.5
147	1	1.84461	18.815	4.5
148	1	3.07436	19.525	4.5
149	1	4.30412	18.815	4.5
150	1	5.53387	19.525	4.5
151	1	6.76363	18.815	4.5
152	1	7.99339	19.525	4.5
153	1	9.22314	18.815	4.5
154	1	10.4529	19.525	4.5
155	1	11.6827	18.815	4.5
156	1	0.614849	20.945	4.5
157	1	1.84461	21.655	4.5
158	1	3.07436	20.945	4.5
159	1	4.30412	21.655	4.5
160	1	5.53387	20.945	4.5
161	1	6.76363	21.655	4.5
162	1	7.99339	20.945	4.5
163	1	9.22314	21.655	4.5
164	1	10.4529	20.945	4.5
165	1	11.6827	21.655	4.5
166	1	0.614849	23.785	4.5
167	1	1.84461	23.075	4.5
168	1	3.07436	23.785	4.5
169	1	4.30412	23.075	4.5
170	1	5.53387	23.785	4.5
171	1	6.76363	23.075	4.5
172	1	7.99339	23.785	4.5
173	1	9.22314	23.075	4.5
174	1	10.4529	23.785	4.5
175	1	11.6827	23.075	4.5
176	1	0.614849	25.205	4.5
177	1	3.07436	25.205	4.5
178	1	5.53387	25.205	4.5
179	1	7.99339	25.205	4.5
180	1	10.4529	25.205	4.5
181	1	1.84461	13.135	10.988
182	1	4.30412	13.135	10.988
183	1	6.76363	13.135	10.988
184	1	9.22314	13.135	10.988
185	1	11.6827	13.135	10.988
186	1	0.614849	15.265	10.988
187	1	1.84461	14.555	10.988
188	1	3.07436	15.265	10.988
189	1	4.30412	14.555	10.988
190	1	5.53387	15.265	10.988
191	1	6.76363	14.555	10.988
192	1	7.99339	15.265	10.988
193	1	9.22314	14.555	10.988
194	1	10.4529	15.265	10.988
195	1	11.6827	14.555	10.988
196	1	0.614849	16.685	10.988
197	1	1.84461	17.395	10.988
198	1	3.07436	16.685	10.988
199	1	4.30412	17.395	10.988
200	1	5.53387	16.685	10.988
201	1	6.76363	17.395	10.988
202	1	7.99339	16.685	10.988
203	1	9.22314	17.395	10.988
204	1	10.4529	16.685	10.988
205	1	11.6827	17.395	10.988
206	1	0.614849	19.525	10.988
207	1	1.84461	18.815	10.988
208	1	3.07436	19.525	10.988
209	1	4.30412	18.815	10.988
210	1	5.53387	19.525	10.988
211	1	6.76363	18.815	10.988
212	1	7.99339	19.525	10.988
213	1	9.22314	18.815	10.988
214	1	10.4529	19.525	10.988
215	1	11.6827	18.815	10.988
216	1	0.614849	20.945	10.988
217	1	1.84461	21.655	10.988
218	1	3.07436	20.945	10.988
219	1	4.30412	21.655	10.988
220	1	5.53387	20.945	10.988
221	1	6.76363	21.655	10.988
222	1	7.99339	20.945	10.988
223	1	9.22314	21.655	10.988
224	1	10.4529	20.945	10.988
225	1	11.6827	21.655	10.988
226	1	0.614849	23.785	10.988
227	1	1.84461	23.075	10.988
228	1	3.07436	23.785	10.988
229	1	4.30412	23.075	10.988
230	1	5.53387	23.785	10.988
231	1	6.76363	23.075	10.988
232	1	7.99339	23.785	10.988
233	1	9.22314	23.075	10.988
234	1	10.4529	23.785	10.988
235	1	11.6827	23.075	10.988
236	1	0.614849	25.205	10.988
237	1	3.07436	25.205	10.988
238	1	5.53387	25.205	10.988
239	1	7.99339	25.205	10.988
240	1	10.4529	25.205	10.988
241	1	14.14211	0.355	4.5
242	1	16.60162	0.355	4.5
243	1	19.06113	0.355	4.5
244	1	21.52064	0.355	4.5
245	1	23.9802	0.355	4.5
246	1	12.912349	2.485	4.5
247	1	14.14211	1.775	4.5
248	1	15.37186	2.485	4.5
249	1	16.60162	1.775	4.5
250	1	17.83137	2.485	4.5
251	1	19.06113	1.775	4.5
252	1	20.29089	2.485	4.5
253	1	21.52064	1.775	4.5
254	1	22.7504	2.485	4.5
255	1	23.9802	1.775	4.5
256	1	12.912349	3.905	4.5
257	1	14.14211	4.615	4.5
258	1	15.37186	3.905	4.5
259	1	16.60162	4.615	4.5
260	1	17.83137	3.905	4.5
261	1	19.06113	4.615	4.5
262	1	20.29089	3.905	4.5
263	1	21.52064	4.615	4.5
264	1	22.7504	3.905	4.5
265	1	23.9802	4.615	4.5
266	1	12.912349	6.745	4.5
267	1	14.14211	6.035	4.5
268	1	15.37186	6.745	4.5
269	1	16.60162	6.035	4.5
270	1	17.83137	6.745	4.5
271	1	19.06113	6.035	4.5
272	1	20.29089	6.745	4.5
273	1	21.52064	6.035	4.5
274	1	22.7504	6.745	4.5
275	1	23.9802	6.035	4.5
276	1	12.912349	8.165	4.5
277	1	14.14211	8.875	4.5
278	1	15.37186	8.165	4.5
279	1	16.60162	8.875	4.5
280	1	17.83137	8.165	4.5
281	1	19.06113	8.875	4.5
282	1	20.29089	8.165	4.5
283	1	21.52064	8.875	4.5
284	1	22.7504	8.165	4.5
285	1	23.9802	8.875	4.5
286	1	12.912349	11.005	4.5
287	1	14.14211	10.295	4.5
288	1	15.37186	11.005	4.5
289	1	16.60162	10.295	4.5
290	1	17.83137	11.005	4.5
291	1	19.06113	10.295	4.5
292	1	20.29089	11.005	4.5
293	1	21.52064	10.295	4.5
294	1	22.7504	11.005	4.5
295	1	23.9802	10.295	4.5
296	1	12.912349	12.425	4.5
297	1	15.37186	12.425	4.5
298	1	17.83137	12.425	4.5
299	1	20.29089	12.425	4.5
300	1	22.7504	12.425	4.5
301	1	14.14211	0.355	10.988
302	1	16.60162	0.355	10.988
303	1	19.06113	0.355	10.988
304	1	21.52064	0.355	10.988
305	1	23.9802	0.355	10.988
306	1	12.912349	2.485	10.988
307	1	14.14211	1.775	10.988
308	1	15.37186	2.485	10.988
309	1	16.60162	1.775	10.988
310	1	17.83137	2.485	10.988
311	1	19.06113	1.775	10.988
312	1	20.29089	2.485	10.988
313	1	21.52064	1.775	10.988
314	1	22.7504	2.485	10.988
315	1	23.9802	1.775	10.988
316	1	12.912349	3.905	10.988
317	1	14.14211	4.615	10.988
318	1	15.37186	3.905	10.988
319	1	16.60162	4.615	10.988
320	1	17.83137	3.905	10.988
321	1	19.06113	4.615	10.988
322	1	20.29089	3.905	10.988
323	1	21.52064	4.615	10.988
324	1	22.7504	3.905	10.988
325	1	23.9802	4.615	10.988
326	1	12.912349	6.745	10.988
327	1	14.14211	6.035	10.988
328	1	15.37186	6.745	10.988
329	1	16.60162	6.035	10.988
330	1	17.83137	6.745	10.988
331	1	19.06113	6.035	10.988
332	1	20.29089	6.745	10.988
333	1	21.52064	6.035	10.988
334	1	22.7504	6.745	10.988
335	1	23.9802	6.035	10.988
336	1	12.912349	8.165	10.988
337	1	14.14211	8.875	10.988
338	1	15.37186	8.165	10.988
339	1	16.60162	8.875	10.988
340	1	17.83137	8.165	10.988
341	1	19.06113	8.875	10.988
342	1	20.29089	8.165	10.988
343	1	21.52064	8.875	10.988
344	1	22.7504	8.165	10.988
345	1	23.9802	8.875	10.988
346	1	12.912349	11.005	10.988
347	1	14.14211	10.295	10.988
348	1	15.37186	11.005	10.988
349	1	16.60162	10.295	10.988
350	1	17.83137	11.005	10.988
351	1	19.06113	10.295	10.988
352	1	20.29089	11.005	10.988
353	1	21.52064	10.295	10.988
354	1	22.7504	11.005	10.988
355	1	23.9802	10.295	10.988
356	1	12.912349	12.425	10.988
357	1	15.37186	12.425	10.988
358	1	17.83137	12.425	10.988
359	1	20.29089	12.425	10.988
360	1	22.7504	12.425	10.988
361	1	14.14211	13.135	4.5
362	1	16.60162	13.135	4.5
363	1	19.06113	13.135	4.5
364	1	21.52064	13.135	4.5
365	1	23.9802	13.135	4.5
366	1	12.912349	15.265	4.5
367	1	14.14211	14.555	4.5
368	1	15.37186	15.265	4.5
369	1	16.60162	14.555	4.5
370	1	17.83137	15.265	4.5
371	1	19.06113	14.555	4.5
372	1	20.29089	15.265	4.5
373	1	21.52064	14.555	4.5
374	1	22.7504	15.265	4.5
375	1	23.9802	14.555	4.5
376	1	12.912349	16.685	4.5
377	1	14.14211	17.395	4.5
378	1	15.37186	16.685	4.5
379	1	16.60162	17.395	4.5
380	1	17.83137	16.685	4.5
381	1	19.06113	17.395	4.5
382	1	20.29089	16.685	4.5
383	1	21.52064	17.395	4.5
384	1	22.7504	16.685	4.5
385	1	23.9802	17.395	4.5
386	1	12.912349	19.525	4.5
387	1	14.14211	18.815	4.5
388	1	15.37186	19.525	4.5
389	1	16.60162	18.815	4.5
390	1	17.83137	19.525	4.5
391	1	19.06113	18.815	4.5
392	1	20.29089	19.525	4.5
393	1	21.52064	18.815	4.5
394	1	22.7504	19.525	4.5
395	1	23.9802	18.815	4.5
396	1	12.912349	20.945	4.5
397	1	14.14211	21.655	4.5
398	1	15.37186	20.945	4.5
399	1	16.60162	21.655	4.5
400	1	17.83137	20.945	4.5
401	1	19.06113	21.655	4.5
402	1	20.29089	20.945	4.5
403	1	21.52064	21.655	4.5
404	1	22.7504	20.945	4.5
405	1	23.9802	21.655	4.5
406	1	12.912349	23.785	4.5
407	1	14.14211	23.075	4.5
408	1	15.37186	23.785	4.5
409	1	16.60162	23.075	4.5
410	1	17.83137	23.785	4.5
411	1	19.06113	23.075	4.5
412	1	20.29089	23.785	4.5
413	1	21.52064	23.075	4.5
414	1	22.7504	23.785	4.5
415	1	23.9802	23.075	4.5
416	1	12.912349	25.205	4.5
417	1	15.37186	25.205	4.5
418	1	17.83137	25.205	4.5
419	1	20.29089	25.205	4.5
420	1	22.7504	25.205	4.5
421	1	14.14211	13.135	10.988
422	1	16.60162	13.135	10.988
423	1	19.06113	13.135	10.988
424	1	21.52064	13.135	10.988
425	1	23.9802	13.135	10.988
426	1	12.912349	15.265	10.988
427	1	14.14211	14.555	10.988
428	1	15.37186	15.265	10.988
429	1	16.60162	14.555	10.988
430	1	17.83137	15.265	10.988
431	1	19.06113	14.555	10.988
432	1	20.29089	15.265	10.988
433	1	21.52064	14.555	10.988
434	1	22.7504	15.265	10.988
435	1	23.9802	14.555	10.988
436	1	12.912349	16.685	10.988
437	1	14.14211	17.395	10.988
438	1	15.37186	16.685	10.988
439	1	16.60162	17.395	10.988
440	1	17.83137	16.685	10.988
441	1	19.06113	17.395	10.988
442	1	20.29089	16.685	10.988
443	1	21.52064	17.395	10.988
444	1	22.7504	16.685	10.988
445	1	23.9802	17.395	10.988
446	1	12.912349	19.525	10.988
447	1	14.14211	18.815	10.988
448	1	15.37186	19.525	10.988
449	1	16.60162	18.815	10.988
450	1	17.83137	19.525	10.988
451	1	19.06113	18.815	10.988
452	1	20.29089	19.525	10.988
453	1	21.52064	18.815	10.988
454	1	22.7504	19.525	10.988
455	1	23.9802	18.815	10.988
456	1	12.912349	20.945	10.988
457	1	14.14211	21.655	10.988
458	1	15.37186	20.945	10.988
459	1	16.60162	21.655	10.988
460	1	17.83137	20.945	10.988
461	1	19.06113	21.655	10.988
462	1	20.29089	20.945	10.988
463	1	21.52064	21.655	10.988
464	1	22.7504	20.945	10.988
465	1	23.9802	21.655	10.988
466	1	12.912349	23.785	10.988
467	1	14.14211	23.075	10.988
468	1	15.37186	23.785	10.988
469	1	16.60162	23.075	10.988
470	1	17.83137	23.785	10.988
471	1	19.06113	23.075	10.988
472	1	20.29089	23.785	10.988
473	1	21.52064	23.075	10.988
474	1	22.7504	23.785	10.988
475	1	23.9802	23.075	10.988
476	1	12.912349	25.205	10.988
477	1	15.37186	25.205	10.988
478	1	17.83137	25.205	10.988
479	1	20.29089	25.205	10.988
480	1	22.7504	25.205	10.988
481	1	20.96306054	21.25510437	7.626241846
482	2	20.94096689	20.00354961	7.679391195
483	2	21.96578002	22.05527235	7.717845177
484	2	19.69897922	21.80757939	7.543362998
485	2	22.64030029	2.922476664	7.841517087
486	2	1.891698807	15.95283982	7.6789444
487	2	12.39688074	5.065040582	7.55117442
488	2	1.212740422	19.04102334	7.80054294
489	2	4.131177493	1.781814102	7.364626844
490	2	10.86597831	16.00154741	7.716540088
491	2	20.73970474	5.213704357	7.613935962
492	2	15.44761404	11.3208188	7.961281497
493	2	1.248619307	24.19213479	7.704867143
494	2	14.26008531	7.533063851	7.776784562
495	2	8.29672282	21.65240633	8.001531885
496	2	11.99109408	19.18944573	7.853092831
497	2	9.208773113	19.04876097	7.374891408
498	2	12.98251157	1.422583312	8.01598845
499	2	14.19498184	17.21489472	8.033794255
500	2	20.047521	14.02519155	7.597895404
501	2	14.97268404	3.483219927	7.939806699
502	2	18.55426083	24.88215172	7.766699784
503	2	6.90641013	25.43077524	7.558736598
504	2	6.702947487	5.325046586	7.87741925
505	2	23.00379181	18.36662272	8.025968808
506	2	1.53063076	2.249711199	7.971935049
507	2	21.71341164	16.03936279	7.755785417
508	2	14.4262329	24.49290511	7.903687463
509	2	24.01226051	14.32562312	7.51308189
510	2	8.307824753	8.280246082	7.541295285
511	2	22.0064729	9.15794675	7.933804826
512	2	12.47990445	21.76533747	7.55916717
513	2	21.39517214	24.55632104	7.880974902
514	2	0.331114831	8.921819761	7.624597522
515	2	0.746800323	11.93340206	7.693083318
516	2	8.219235077	16.87253734	8.04733464
517	2	5.930645255	15.9380753	7.61254969
518	2	3.768814768	13.74999899	7.932967987
519	2	17.06094564	8.687982102	8.043254262
520	2	23.10662826	6.72698489	7.87610191
521	2	3.842868278	11.13857116	7.774742262
522	2	10.07327062	23.91392462	7.742809232
523	2	13.34158768	14.47431098	7.665762247
524	2	6.304422768	19.40326768	7.941926851
525	2	16.59528908	1.056516847	7.650917177
526	2	19.42348527	7.507656648	8.184385221
527	2	3.839976835	4.646035937	7.895264674
528	2	8.564436551	10.98128383	7.729646777
529	2	17.51905779	13.28018554	7.705268864
530	2	2.720517223	7.044853891	7.358498761
531	2	21.93015513	11.99038028	7.576768313
532	2	8.636936617	14.40676129	7.554032013
533	2	9.915599494	1.141973715	7.408508469
534	2	16.50213779	22.86944095	7.760107327
535	2	15.15986928	20.07864652	7.854711615
536	2	6.311250301	12.2222513	7.732744386
537	2	4.11391604	17.7586055	7.901459302
538	2	19.2517091	2.640105735	8.053449979
539	2	24.50555028	21.60600565	7.754142912
540	2	19.02863776	10.89789263	7.532786389
541	2	6.595303765	2.348749708	7.746602005
542	2	16.862769	16.60705279	7.899620646
543	2	5.116482612	8.652654401	7.826037718
544	2	11.2674357	7.855025182	7.688440979
545	2	17.92973558	19.95710901	7.84502883
546	2	11.06155335	12.54986319	7.473758769
547	2	23.75019119	0.550271695	7.526007986
548	2	3.735306806	24.76263959	7.600893113
549	2	17.02815592	5.877141355	7.723879618
550	2	0.770958625	5.042326811	8.148453011
551	2	19.50231024	17.70476647	7.885819389
552	2	3.775892465	20.86661378	7.857377634
553	2	5.714578797	22.95455482	7.773303354
554	2	9.536466712	4.009574927	7.770749215
555	2	12.76577095	10.13459907	7.706837409
556	3	14.62094791	19.42554867	7.483632713
557	3	16.84699703	22.06225053	7.343641427
558	3	17.94834259	8.273567541	8.026655229
559	3	21.67836013	2.910297191	8.036724896
560	3	2.611732025	15.23954348	7.680657064
561	3	2.072223975	16.47235292	6.878782419
562	3	11.83372847	4.299817361	7.580854018
563	3	13.26970571	4.684503555	7.717839291
564	3	23.56782753	18.72541796	8.725233944
565	3	0.641468023	18.34505223	7.46941758
566	3	4.171718361	0.8321859	7.181506244
567	3	5.015273236	2.105450443	7.32265147
568	3	11.42521503	16.48439323	7.091163604
569	3	22.08915563	16.93433978	7.806439476
570	3	20.19313641	4.416302847	7.564179704
571	3	21.21243034	5.319383417	6.765019968
572	3	16.18482234	10.72422375	8.102651094
573	3	23.32338257	15.0248769	7.529955874
574	3	0.583660272	24.83350301	7.453859376
575	3	0.805386449	23.31161797	7.698307536
576	3	13.53783948	7.329196332	7.171015865
577	3	14.08351833	8.461344759	8.021479898
578	3	16.71613178	12.76504353	7.479678284
579	3	7.396365176	21.95858873	8.058372844
580	3	5.535905372	19.99743095	7.991055798
581	3	12.25833497	20.15220435	7.886529356
582	3	10.20322956	18.9496003	7.57978122
583	3	6.434311239	12.46052775	8.649430503
584	3	13.00659592	2.206991039	8.587539107
585	3	12.00753462	1.400569122	7.639890062
586	3	13.82887457	16.34548732	7.843650458
587	3	15.17737948	17.04563275	7.999426767
588	3	19.12071769	14.17611898	7.264147583
589	3	20.72053573	14.49781139	7.03587796
590	3	15.39387562	2.64492654	7.678577521
591	3	15.67358056	4.085790696	7.808253935
592	3	9.465094806	13.98492936	7.286687896
593	3	17.92581367	24.07973205	7.749693077
594	3	6.578394682	24.63471929	7.953051776
595	3	6.627706675	25.48618103	6.62962692
596	3	6.957447705	5.867750217	7.140487662
597	3	5.717303975	5.145525616	7.732876079
598	3	2.052013876	18.9991703	7.286230493
599	3	22.33401544	19.10155789	7.883804039
600	3	2.47907969	1.835464159	7.983301737
601	3	0.916943577	1.592932446	7.631473265
602	3	21.65396913	15.70561625	8.644847758
603	3	11.19624696	16.13089843	8.630634796
604	3	19.03199426	21.06744537	7.633727864
605	3	14.798352	24.53521156	8.810443773
606	3	0.252204855	14.81609792	7.522912245
607	3	14.79149376	10.88475547	7.442396381
608	3	8.207201052	7.904046258	8.40642868
609	3	8.301614375	9.28105941	7.590093094
610	3	22.81750424	8.791602786	7.579707978
611	3	22.11410534	10.13850869	7.951725387
612	3	10.54898589	12.40298014	8.282584305
613	3	12.71675095	18.62133052	8.155371415
614	3	21.24374285	24.3000078	8.825654583
615	3	21.49663351	23.63001869	7.594227179
616	3	24.45949769	8.364905809	8.276004342
617	3	0.447715718	9.777091182	8.038753114
618	3	0.533939609	12.1889485	6.775686363
619	3	0.215442644	12.61541404	8.118848132
620	3	7.235430992	16.58184718	7.896198721
621	3	8.846009792	16.2549074	7.466025911
622	3	5.272047404	16.67515411	7.826343539
623	3	5.860365227	15.28331825	8.270927774
624	3	3.834601275	13.05743228	7.261724444
625	3	3.317157718	13.20092405	8.682007662
626	3	23.05943515	3.620288357	8.39221965
627	3	16.60623968	8.286599182	7.319999207
628	3	23.79712428	5.995757731	7.861358552
629	3	22.4328078	6.396585255	8.472963248
630	3	4.255643441	10.18441369	7.613393085
631	3	2.887326173	11.05856689	7.58061403
632	3	0.072059922	20.67884348	7.720302967
633	3	10.37460846	24.78010473	7.538207346
634	3	12.33231912	14.42398739	7.714210594
635	3	13.71810147	13.54205454	7.623229986
636	3	6.740886831	19.6791576	7.118767591
637	3	6.918391915	1.587893885	8.221634495
638	3	17.46143652	0.555357203	7.668495973
639	3	15.93507583	0.328946586	7.425750617
640	3	20.26878754	7.982138918	8.237814566
641	3	5.100511268	8.139238865	7.019205828
642	3	3.302226623	5.087071921	7.215377786
643	3	3.876442896	3.736616779	7.453402468
644	3	7.596504284	11.22663791	7.645368269
645	3	9.038271783	11.26817893	6.971056668
646	3	8.852063828	22.45858309	7.776294083
647	3	18.01588724	12.47623999	8.021145977
648	3	2.147391017	7.660084262	6.87212718
649	3	3.154903464	7.50239583	8.090561164
650	3	22.58836109	12.64976827	7.212601712
651	3	21.07757885	12.50783449	7.534831397
652	3	8.007099298	13.89515181	7.007763883
653	3	8.856742608	19.91990218	7.813600999
654	3	8.995616949	1.010490817	7.083072896
655	3	9.888383159	1.901294405	8.005396277
656	3	14.52860182	20.45366422	8.505792088
657	3	15.98940206	23.27402263	7.036222648
658	3	5.365748767	11.8415749	7.839176708
659	3	13.11227715	22.47484749	7.839361567
660	3	19.43907587	24.55965514	7.475088233
661	3	13.82573139	25.2921449	7.858502476
662	3	3.525709857	17.73619035	8.626990304
663	3	4.688384589	18.52157475	8.002896033
664	3	19.15845658	2.029062364	7.294041139
665	3	18.39091494	2.59957233	8.442554539
666	3	10.14836598	23.86435662	8.695329454
667	3	23.56339375	21.59320129	7.617365291
668	3	19.7701514	10.58011935	8.124335218
669	3	18.26555389	10.31824633	7.751307236
670	3	6.746221642	3.039237751	8.394194026
671	3	8.492696106	17.88286115	7.868116125
672	3	17.70569547	17.03788761	7.705607784
673	3	17.13601343	15.62789983	7.887231854
674	3	6.040997831	8.860759407	8.037140712
675	3	19.60957097	6.552390843	8.1732392
676	3	11.57236197	6.93994516	7.919577074
677	3	10.28767445	7.857916924	7.6411458
678	3	16.89649397	19.89397331	8.026909062
679	3	18.29348239	19.11075949	7.58647266
680	3	11.60088115	22.17312862	7.640345847
681	3	11.65712071	11.7423394	7.487847941
682	3	23.03007571	25.5496223	7.861557062
683	3	23.44770478	1.476927319	7.794401005
684	3	3.766637236	24.78917831	8.591060544
685	3	2.760575872	24.4930651	7.409542549
686	3	16.18646491	6.399853822	7.653303234
687	3	17.28746652	5.841915932	8.675979623
688	3	1.18016851	4.13744222	8.184714482
689	3	1.413355899	5.800555854	8.199010172
690	3	19.8470541	16.85426252	8.147295791
691	3	20.27146257	18.32408193	7.775696204
692	3	3.608093041	21.32137301	7.027311914
693	3	2.883513504	20.8022744	8.228051072
694	3	5.045013029	22.39732896	8.192502915
695	3	5.021448689	23.61034748	7.428067911
696	3	9.143420631	3.990856499	6.893417854
697	3	8.898655495	4.457954106	8.331593355
698	3	12.50876956	10.36025495	8.623489568
699	3	12.17933195	9.380924781	7.576530318