LAMMPS data file via write_data, version 29 Aug 2024, units = real

192 atoms
3 atom types

0 12.66 xlo xhi
0 12.66 ylo yhi
0 12.66 zlo zhi

Masses

1 12.011
2 15.9994
3 2.014101777

Atoms # atomic

170 3 0.41869429890680376 1.3118652900103938 0.25447636322754036 -1 4 -2
65 2 0.9082629562317227 6.121206260339286 1.5470069552145156 0 0 -7
55 2 1.1792616336611264 1.066811987283129 0.9303306692792306 -1 4 -2
167 3 0.1615485493970523 0.35982947980062213 2.3303474068899774 3 6 -5
173 3 1.7090811746164127 4.478120217567903 1.6149470890755466 3 2 3
169 3 1.7002525912875786 1.910510393371859 0.9975474072805927 -1 4 -2
29 2 0.2080619622790083 5.799284146658264 4.322142911872615 -5 1 6
118 3 0.011210268542173552 5.34414100235038 3.450377458758464 -5 1 6
115 3 1.6233187322173894 2.292827760016587 4.362872924183688 -2 -2 -10
72 3 0.7756748948803117 2.7184249747490745 9.126937634885687 0 0 -3
6 2 0.6281295861647974 1.7436616444897115 8.962280297146762 0 0 -3
103 3 0.5428220500594426 5.176170462011366 9.33376017948361 2 -5 -1
87 3 1.2166684264709005 0.7837120143973095 10.523117285596149 4 -4 -3
22 2 0.9400332064516945 4.464099600927507 9.90936800394306 2 -5 -1
89 3 0.10078803742968843 2.4686256011156797 11.131886104245911 -9 -2 -3
189 3 1.510832370687889 6.874371724596736 1.3715708397781872 0 0 -7
95 3 1.0794591948673031 9.007623021154696 1.218044468491312 -2 -5 1
80 3 0.1482326639454852 10.64140683310492 2.5953237604463024 1 -5 0
190 3 0.16000891512494575 6.41267433560157 0.958668355352463 0 0 -7
20 2 1.5913835260827196 10.985238451274236 6.1070110985527 2 -1 0
99 3 1.757570092835499 11.238319776555965 5.157278153702399 2 -1 0
117 3 0.9654661334419434 6.324377370767783 3.9938430037791437 -5 1 6
67 3 1.174815845710891 6.882038857196783 8.041686975269549 -2 -1 0
4 2 0.2268527296935611 6.582903972372939 8.148861001289 -2 -1 0
188 3 0.1824031785092086 11.536950481441796 9.864310311948032 -4 -7 -3
85 3 1.2756001428838164 8.440411375807127 10.06419603666085 1 3 -3
14 2 1.6784445858662191 12.547658010402925 10.78754267515235 4 -5 -3
88 3 1.6124600396691395 12.394088120503058 11.759843414121287 4 -5 -3
48 2 2.283578804678479 3.671391611415005 1.6163406287424045 3 2 3
155 3 3.154476922839902 3.9787426881966876 1.553748160113326 3 2 3
16 2 2.5801897275690964 2.482920608679832 4.125564181253764 -2 -2 -10
92 3 2.544247044664327 3.022977958504438 3.347053475349942 -2 -2 -10
131 3 3.1316409637385165 6.084876663961794 5.609551592127 -8 4 8
153 3 3.5037177096454375 5.906092051402544 3.2125125889312978 6 -3 2
93 3 3.16035290934375 5.4580130076708295 8.011018746340481 -5 -1 3
23 2 3.246713729945111 0.6605494175875524 7.469083646922046 -1 -2 4
17 2 3.25508792744646 5.203337444285079 8.955503938425714 -5 -1 3
105 3 2.726475306955909 0.8860571847929887 8.257303549043925 -1 -2 4
106 3 3.0523178575851504 1.409825591863792 6.85310082156104 -1 -2 4
104 3 1.914617137052381 4.550316676811795 9.785658196619526 2 -5 -1
76 3 3.1314684008444256 9.272062797399705 1.8550428879456136 6 -1 5
18 2 1.9316756869298803 8.606297035025952 0.8404580994155528 -2 -5 1
123 3 3.27765035412979 11.015176615710576 3.0617073496935334 -2 -2 5
124 3 2.7857656714776766 12.376884814190477 2.8448252941573027 -2 -2 5
154 3 3.4123721597990833 7.47207541571298 3.4814651837054473 6 -3 2
47 2 3.025331751141997 6.590400540434781 3.7487761494080085 6 -3 2
32 2 2.876003268972489 11.81192783094251 3.564122510295212 -2 -2 5
128 3 3.2754643582531284 8.779696179313188 8.125171708015781 -1 1 2
34 2 2.364941231916784 8.803889176982501 7.763583035776751 -1 1 2
132 3 2.985206624938551 7.24400863376474 6.528491570994508 -8 4 8
36 2 2.9664431883674083 6.289027690929594 6.5451062655115395 -8 4 8
127 3 2.3460093750580673 9.377456469611214 6.9621979991467 -1 1 2
100 3 2.1510694558230004 11.579188911626265 6.687050411156864 2 -1 0
86 3 2.5804362862861483 9.27860042039578 10.069692329417217 1 3 -3
13 2 2.04049650102484 8.688947817216874 10.595123454033889 1 3 -3
129 3 3.229836434116254 11.604985155871743 10.29845115135168 0 0 -3
96 3 1.9041300034961035 8.909647786324534 12.50256371877779 -2 -5 0
63 2 4.7359917371925215 4.663284020183093 2.014038000434287 -2 6 -7
186 3 5.2088575241916395 5.340662992606298 1.487133401558465 -2 6 -7
185 3 5.270673099760763 4.425805062663764 2.757363297421508 -2 6 -7
82 3 4.150219849268653 3.254755707067858 5.429952323010275 4 -3 6
11 2 4.951453121533249 2.995965094139042 6.003437889102828 4 -3 6
53 2 5.350117925554192 0.23062401433752605 5.231228933835253 -6 2 -5
81 3 5.254662245882472 2.039729808443349 5.896315822838123 4 -3 6
176 3 4.633850172618233 3.840318263744178 9.018313618339526 2 -2 -5
175 3 5.166284939070164 3.1579198333813148 7.735127635048656 2 -2 -5
94 3 3.87665752715722 5.759532932877766 9.347138059844179 -5 -1 3
75 3 4.72634168547897 9.495723710185956 2.19125618007149 6 -1 5
8 2 3.837377156961749 9.529058848923512 2.5741409101299952 6 -1 5
165 3 4.594979215473183 12.497942882979116 4.713490320028107 -6 1 -5
130 3 4.323480851446226 10.956118532899513 9.373911268759633 0 0 -3
42 2 5.1140392554254825 8.669169466373006 8.25804733008347 -1 -4 -5
183 3 5.1376334744725085 12.023580702586498 7.504160794300157 4 2 -2
143 3 5.1461774642616405 8.514769954269493 9.231097593676648 -1 -4 -5
77 3 5.253426087123327 11.333467755710814 11.546822212308621 -4 -2 -2
35 2 3.8799456792972142 10.870727756627874 10.247714770547324 0 0 -3
137 3 5.311346994820135 6.9444029489523915 11.504991792243073 -2 5 11
39 2 5.274800417682747 6.769852103950969 10.51162370593643 -2 5 11
1 1 5.8520698973462375 2.7995517311310323 0.10696682989263025 7 1 0
3 2 5.761693718918288 2.150508653142138 1.067239354371195 7 1 0
40 2 6.576313777068824 6.195991204485372 0.5101354197200915 7 7 -5
116 3 6.153154455064142 3.759921458073363 4.616397321595897 1 -1 0
28 2 6.595782040899567 4.213641824647648 3.8682080753438273 1 -1 0
58 2 5.432297381275878 3.2996723773212273 8.735004711988658 2 -2 -5
152 3 6.755715993870541 4.199459254248883 8.633533307845578 8 -7 1
2 2 6.0124987368280145 3.4837511177726004 11.714233402453399 7 1 -1
25 2 6.232858614599666 0.790475416376321 10.042846151892434 1 7 -1
109 3 7.158751973008417 1.1974505093790957 9.864574676901105 1 7 -1
110 3 5.635316706181849 1.5300275676484796 9.998202591017309 1 7 -1
43 2 6.4446217486152895 8.768982386667256 2.351861786652981 4 2 1
107 3 6.8987930481409965 12.011795089655047 1.0284322167679785 2 0 1
146 3 6.812486299269813 9.036364447105008 1.4513084322949896 4 2 1
145 3 6.732775168102909 9.581628387005367 2.8716508852550287 4 2 1
139 3 6.987019169100281 6.903486422408479 1.0388806336747007 7 7 -5
166 3 6.012461298065706 12.076049358459363 5.02893493412086 -6 1 -5
60 2 6.930125808732137 10.87425570206337 4.209557754101383 0 0 -5
180 3 7.078239719622071 11.385057989890585 3.382952158829149 0 0 -5
122 3 6.554191755901125 7.6280827708687955 7.012304617209171 9 5 3
62 2 5.892974720720945 11.619154180622274 8.002301705887056 4 2 -2
184 3 6.086818558092878 12.161456177306867 8.74649392707149 4 2 -2
144 3 5.567666622244725 9.544136038872248 7.923866789988147 -1 -4 -5
9 2 5.997532941245621 11.73557483311796 12.064248243766313 -4 -2 -2
138 3 6.172451226652838 6.361167847881998 10.498540665052449 -2 5 11
78 3 6.293430982428462 12.426068112899072 11.40857803503082 -4 -2 -2
69 3 7.166363213562323 9.833240947193396 11.976065156155403 -2 -1 -1
108 3 8.113931330015728 0.2530945423294136 1.5659659829305754 2 1 1
140 3 7.3385804519802145 5.755546302728609 0.051678492932913045 7 7 -5
163 3 8.32773434384603 2.748333944750035 4.228274296951899 6 -4 -7
119 3 7.214151587664419 4.812450294081664 4.313610931124448 1 -1 0
148 3 8.155056832957847 1.4835394414187226 7.332607266583493 6 4 -3
46 2 7.567102362712443 4.823302217976934 8.79163478282476 8 -7 1
151 3 7.387747487734624 5.630956014949916 8.249158774291338 8 -7 1
44 2 8.263227709851963 0.6351903440965755 6.94040550998357 6 4 -3
147 3 7.375153164048799 0.1735110094312919 7.1050439906626774 6 4 -3
12 2 8.638007701844549 2.0617743810273526 10.022344878561785 5 -2 0
171 3 8.249467777435884 5.312163837600721 10.233451288245401 1 2 2
56 2 8.582675813617795 5.482898861858812 11.149436822428559 1 2 2
83 3 8.767790798929164 2.3566779411216308 10.902665472293544 5 -2 0
24 2 7.540866117756217 12.00943392875539 1.8047918258239162 2 0 1
135 3 8.425147236519065 7.624270345779711 2.6150846186456174 -7 -3 -2
45 2 8.555277277043743 6.355475992781805 4.7167324153912 2 4 -1
52 2 8.65328755423994 9.89532740115791 6.049886417518609 0 5 6
179 3 7.733184252889194 10.572685305997595 4.653749621640453 0 0 -5
150 3 7.945815801513716 6.62159712135086 5.491960713709983 2 4 -1
31 2 7.5037854284332 7.324155563237786 7.014733398481076 9 5 3
121 3 8.090428008235119 8.094018426492395 6.691126352680928 9 5 3
164 3 8.501828293794112 10.483569956539094 6.7919757390544 0 5 6
5 2 7.790258298766386 9.0614413821421 12.009952057164359 -2 -1 -1
70 3 8.598360658196757 9.334951423684146 12.50983381146299 -2 -1 -1
113 3 8.82838089737236 10.9343771736496 9.737138434798233 -3 -4 -1
157 3 10.075256731813846 5.46086526252116 2.472098731472032 -4 1 -2
41 2 9.531175093494419 1.269714737211594 1.7641893438926053 0 1 11
49 2 10.471949445995808 4.545117933810647 2.4264757209101715 -4 1 -2
141 3 9.695790593108772 2.192816672094453 1.3413937718259288 0 1 11
192 3 10.39658223338142 3.9156845218102285 1.0353348648435972 2 1 4
142 3 9.414634581192706 1.4311573798789314 2.7290716457378568 0 1 11
66 2 10.313486944948577 3.4589960188036533 0.18932658887655257 2 1 4
174 3 9.487895082113983 2.9110462031815802 5.1900290431658345 6 -3 -7
57 2 9.283878940490652 2.8909358384927026 4.200615916867259 6 -3 -7
149 3 9.31013521936926 6.033593009851056 5.225154364935228 2 4 -1
160 3 9.204531635814106 0.24269804889014754 4.765261441691996 -3 5 2
158 3 10.069727508703314 4.064808116366283 3.1989160918220074 -4 1 -2
7 2 9.517544607528873 3.5241356514394737 7.214870711701985 -7 3 1
74 3 10.074115964102598 2.7178897080343187 7.361404921206116 -7 3 1
102 3 10.42758984255182 4.987118770281038 6.723808370464313 2 -5 4
73 3 8.979776449025117 3.669338033722463 8.06553019015432 -7 3 1
191 3 9.957539524794697 4.1055036387383606 12.074999141234118 2 1 3
84 3 9.20740230195324 1.2937268551702963 9.967483301489604 5 -2 0
182 3 10.728847570130956 0.546566219020895 11.502654331807262 -4 2 1
38 2 9.282913250305576 7.306059141974416 2.3377348418122303 -7 -3 -2
120 3 10.516677049939034 6.865428201209514 0.6611988607042951 -8 0 1
59 2 9.867106882384373 10.56084920553066 0.8165200899196307 -2 -2 1
178 3 9.191411556457583 11.116709569156065 1.1685222160929678 -2 -2 1
177 3 10.508672417502025 10.513091770009623 1.5199491937071379 -2 -2 1
136 3 9.724529562476466 7.7211773316280405 3.0943456121689663 -7 -3 -2
156 3 9.597274809934058 9.816563897418739 5.972410180325336 0 6 6
159 3 10.2456599236334 11.886699286008144 5.286019786870795 -3 4 2
50 2 9.946415763151037 12.24949244412156 4.441246224131882 -3 4 2
27 2 9.000728119612335 10.534528468295306 8.8906806426029 -3 -4 -1
114 3 9.0010492946075 9.578807676108292 9.090844264893997 -3 -4 -1
61 2 10.01446449822019 12.418267053080934 11.243126695355748 -4 1 1
181 3 10.106263219375275 11.733495908412142 11.978375626979624 -4 1 1
172 3 9.027995913465235 6.3371557050402245 11.104089674987712 1 2 2
168 3 11.351280294306804 0.036157553400004275 3.03407670659459 2 6 -5
98 3 11.954561258988722 2.8846009433114084 4.213838973742651 -1 7 -1
101 3 11.508863105122336 5.407644021941041 5.591048003647802 2 -5 4
97 3 12.180302298476299 1.3059104154102144 4.01884754060264 -1 7 -1
19 2 12.427902322377529 2.083345331283835 4.5271051530683675 -1 7 -1
125 3 11.912228568565533 1.3842232402345447 5.992617690499069 0 -4 -1
54 2 12.313656900963265 0.01754665709960127 3.1467404110474617 2 6 -5
33 2 11.542439261568704 1.3522525858561691 6.926582874710833 0 -4 -1
126 3 11.13743124576412 0.49900805385507246 6.9636655936129594 0 -4 -1
21 2 11.05531047990744 5.670434880230581 6.403189805402003 2 -5 4
71 3 12.565658598608433 1.6521647656185652 8.229983853561613 -1 0 -3
68 3 12.510111142781115 6.161286015289913 7.297118628086229 -3 -1 0
15 2 12.090276090135845 1.964448086194539 11.725887369741091 -10 -2 -3
90 3 11.483529287690956 2.6274188542396524 12.176428318488398 -10 -2 -3
10 2 12.402679335329069 9.762327498130706 2.180280601380451 0 -5 0
79 3 12.368481572664244 9.213104820545563 2.9647261653050765 0 -5 0
30 2 11.25190538687094 6.4131932099270985 0.16156595756138117 -8 0 1
111 3 11.903309258187324 7.490348264389657 4.7224072238793555 -12 -5 -2
112 3 11.82703215452328 8.799045184034672 5.503843064282503 -12 -5 -2
26 2 11.649167365773875 8.4282203685236 4.594933668163042 -12 -5 -2
161 3 12.16302854375952 11.111606581604612 6.442800576246342 1 -5 3
51 2 11.244150186714396 11.053882848950286 6.6830561326018 1 -5 3
162 3 11.214219791381193 10.941704810917116 7.633294367777463 1 -5 3
64 2 11.907605081953706 11.180759415413808 9.457846293358829 -5 -7 -3
187 3 11.187337723263868 11.600675913984832 9.93465011333246 -5 -7 -3
91 3 11.350576777645042 6.9446248758821065 11.98163060474566 -8 0 0
133 3 11.043644783047265 8.908801813483324 9.81572313338747 2 2 6
37 2 10.995329481414206 8.011066933534469 10.133097313412458 2 2 6
134 3 11.588121594682333 7.477048104475448 9.497530052124713 2 2 6